HEADER
"PSFversion" "1.00"
"Run Generator" "drlRun rev. 1.0"
"Run Time Stamp" "Fri May 19 20:59:34 2023"
"date" "Fri May 19 20:59:34 2023"
TYPE
"runObject" STRUCT(
"logName" ARRAY( * ) STRING *
"parent" STRING *
"sweepVariable" ARRAY( * ) STRING *
) PROP( "key" "runObject" )
VALUE
"run1" "runObject" (
(
"logFile"
)
""
()
)
END
